# LAMMPS data file written by Ovito 3.0.0-dev383
4518 atoms
3 atom types
0.0 98.85031581 xlo xhi
0.0 110.61968879 ylo yhi
-5.0 25.515301 zlo zhi

Masses
 
1   95.96000000    # Mo
2   32.06000000    # S 
3   15.99900000    # O 

Atoms # charge

1 1 0.0 1.59435492 0.92051045 11.08108792
2 1 0.0 3.6e-06 3.68202798 11.08108792
3 2 0.0 3.18871941 1.84101537 12.63652054
4 2 0.0 1.59436808 4.60253291 12.63652054
5 2 0.0 3.18871941 1.84101537 9.5256553
6 2 0.0 1.59436808 4.60253291 9.5256553
7 1 0.0 4.78307492 0.92051045 11.08108792
8 1 0.0 3.1887236 3.68202798 11.08108792
9 2 0.0 6.37743941 1.84101537 12.63652054
10 2 0.0 4.78308808 4.60253291 12.63652054
11 2 0.0 6.37743941 1.84101537 9.5256553
12 2 0.0 4.78308808 4.60253291 9.5256553
13 1 0.0 7.97179492 0.92051045 11.08108792
14 1 0.0 6.3774436 3.68202798 11.08108792
15 2 0.0 9.56615941 1.84101537 12.63652054
16 2 0.0 7.97180808 4.60253291 12.63652054
17 2 0.0 9.56615941 1.84101537 9.5256553
18 2 0.0 7.97180808 4.60253291 9.5256553
19 1 0.0 11.16051492 0.92051045 11.08108792
20 1 0.0 9.5661636 3.68202798 11.08108792
21 2 0.0 12.75487941 1.84101537 12.63652054
22 2 0.0 11.16052808 4.60253291 12.63652054
23 2 0.0 12.75487941 1.84101537 9.5256553
24 2 0.0 11.16052808 4.60253291 9.5256553
25 1 0.0 14.34923492 0.92051045 11.08108792
26 1 0.0 12.7548836 3.68202798 11.08108792
27 2 0.0 15.94359941 1.84101537 12.63652054
28 2 0.0 14.34924808 4.60253291 12.63652054
29 2 0.0 15.94359941 1.84101537 9.5256553
30 2 0.0 14.34924808 4.60253291 9.5256553
31 1 0.0 17.53795492 0.92051045 11.08108792
32 1 0.0 15.9436036 3.68202798 11.08108792
33 2 0.0 19.13231941 1.84101537 12.63652054
34 2 0.0 17.53796808 4.60253291 12.63652054
35 2 0.0 19.13231941 1.84101537 9.5256553
36 2 0.0 17.53796808 4.60253291 9.5256553
37 1 0.0 20.72667492 0.92051045 11.08108792
38 1 0.0 19.1323236 3.68202798 11.08108792
39 2 0.0 22.32103941 1.84101537 12.63652054
40 2 0.0 20.72668808 4.60253291 12.63652054
41 2 0.0 22.32103941 1.84101537 9.5256553
42 2 0.0 20.72668808 4.60253291 9.5256553
43 1 0.0 23.91539492 0.92051045 11.08108792
44 1 0.0 22.3210436 3.68202798 11.08108792
45 2 0.0 25.50975941 1.84101537 12.63652054
46 2 0.0 23.91540808 4.60253291 12.63652054
47 2 0.0 25.50975941 1.84101537 9.5256553
48 2 0.0 23.91540808 4.60253291 9.5256553
49 1 0.0 27.10411492 0.92051045 11.08108792
50 1 0.0 25.5097636 3.68202798 11.08108792
51 2 0.0 28.69847941 1.84101537 12.63652054
52 2 0.0 27.10412808 4.60253291 12.63652054
53 2 0.0 28.69847941 1.84101537 9.5256553
54 2 0.0 27.10412808 4.60253291 9.5256553
55 1 0.0 30.29283492 0.92051045 11.08108792
56 1 0.0 28.6984836 3.68202798 11.08108792
57 2 0.0 31.88719941 1.84101537 12.63652054
58 2 0.0 30.29284808 4.60253291 12.63652054
59 2 0.0 31.88719941 1.84101537 9.5256553
60 2 0.0 30.29284808 4.60253291 9.5256553
61 1 0.0 33.48155492 0.92051045 11.08108792
62 1 0.0 31.8872036 3.68202798 11.08108792
63 2 0.0 35.07591941 1.84101537 12.63652054
64 2 0.0 33.48156808 4.60253291 12.63652054
65 2 0.0 35.07591941 1.84101537 9.5256553
66 2 0.0 33.48156808 4.60253291 9.5256553
67 1 0.0 36.67027492 0.92051045 11.08108792
68 1 0.0 35.0759236 3.68202798 11.08108792
69 2 0.0 38.26463941 1.84101537 12.63652054
70 2 0.0 36.67028808 4.60253291 12.63652054
71 2 0.0 38.26463941 1.84101537 9.5256553
72 2 0.0 36.67028808 4.60253291 9.5256553
73 1 0.0 39.85899492 0.92051045 11.08108792
74 1 0.0 38.2646436 3.68202798 11.08108792
75 2 0.0 41.45335941 1.84101537 12.63652054
76 2 0.0 39.85900808 4.60253291 12.63652054
77 2 0.0 41.45335941 1.84101537 9.5256553
78 2 0.0 39.85900808 4.60253291 9.5256553
79 1 0.0 43.04771492 0.92051045 11.08108792
80 1 0.0 41.4533636 3.68202798 11.08108792
81 2 0.0 44.64207941 1.84101537 12.63652054
82 2 0.0 43.04772808 4.60253291 12.63652054
83 2 0.0 44.64207941 1.84101537 9.5256553
84 2 0.0 43.04772808 4.60253291 9.5256553
85 1 0.0 46.23643492 0.92051045 11.08108792
86 1 0.0 44.6420836 3.68202798 11.08108792
87 2 0.0 47.83079941 1.84101537 12.63652054
88 2 0.0 46.23644808 4.60253291 12.63652054
89 2 0.0 47.83079941 1.84101537 9.5256553
90 2 0.0 46.23644808 4.60253291 9.5256553
91 1 0.0 49.42515492 0.92051045 11.08108792
92 1 0.0 47.8308036 3.68202798 11.08108792
93 2 0.0 51.01951941 1.84101537 12.63652054
94 2 0.0 49.42516808 4.60253291 12.63652054
95 2 0.0 51.01951941 1.84101537 9.5256553
96 2 0.0 49.42516808 4.60253291 9.5256553
97 1 0.0 52.61387492 0.92051045 11.08108792
98 1 0.0 51.0195236 3.68202798 11.08108792
99 2 0.0 54.20823941 1.84101537 12.63652054
100 2 0.0 52.61388808 4.60253291 12.63652054
101 2 0.0 54.20823941 1.84101537 9.5256553
102 2 0.0 52.61388808 4.60253291 9.5256553
103 1 0.0 55.80259492 0.92051045 11.08108792
104 1 0.0 54.2082436 3.68202798 11.08108792
105 2 0.0 57.39695941 1.84101537 12.63652054
106 2 0.0 55.80260808 4.60253291 12.63652054
107 2 0.0 57.39695941 1.84101537 9.5256553
108 2 0.0 55.80260808 4.60253291 9.5256553
109 1 0.0 58.99131492 0.92051045 11.08108792
110 1 0.0 57.3969636 3.68202798 11.08108792
111 2 0.0 60.58567941 1.84101537 12.63652054
112 2 0.0 58.99132808 4.60253291 12.63652054
113 2 0.0 60.58567941 1.84101537 9.5256553
114 2 0.0 58.99132808 4.60253291 9.5256553
115 1 0.0 62.18003492 0.92051045 11.08108792
116 1 0.0 60.5856836 3.68202798 11.08108792
117 2 0.0 63.77439941 1.84101537 12.63652054
118 2 0.0 62.18004808 4.60253291 12.63652054
119 2 0.0 63.77439941 1.84101537 9.5256553
120 2 0.0 62.18004808 4.60253291 9.5256553
121 1 0.0 65.36875492 0.92051045 11.08108792
122 1 0.0 63.7744036 3.68202798 11.08108792
123 2 0.0 66.96311941 1.84101537 12.63652054
124 2 0.0 65.36876808 4.60253291 12.63652054
125 2 0.0 66.96311941 1.84101537 9.5256553
126 2 0.0 65.36876808 4.60253291 9.5256553
127 1 0.0 68.55747492 0.92051045 11.08108792
128 1 0.0 66.9631236 3.68202798 11.08108792
129 2 0.0 70.15183941 1.84101537 12.63652054
130 2 0.0 68.55748808 4.60253291 12.63652054
131 2 0.0 70.15183941 1.84101537 9.5256553
132 2 0.0 68.55748808 4.60253291 9.5256553
133 1 0.0 71.74619492 0.92051045 11.08108792
134 1 0.0 70.1518436 3.68202798 11.08108792
135 2 0.0 73.34055941 1.84101537 12.63652054
136 2 0.0 71.74620808 4.60253291 12.63652054
137 2 0.0 73.34055941 1.84101537 9.5256553
138 2 0.0 71.74620808 4.60253291 9.5256553
139 1 0.0 74.93491492 0.92051045 11.08108792
140 1 0.0 73.3405636 3.68202798 11.08108792
141 2 0.0 76.52927941 1.84101537 12.63652054
142 2 0.0 74.93492808 4.60253291 12.63652054
143 2 0.0 76.52927941 1.84101537 9.5256553
144 2 0.0 74.93492808 4.60253291 9.5256553
145 1 0.0 78.12363492 0.92051045 11.08108792
146 1 0.0 76.5292836 3.68202798 11.08108792
147 2 0.0 79.71799941 1.84101537 12.63652054
148 2 0.0 78.12364808 4.60253291 12.63652054
149 2 0.0 79.71799941 1.84101537 9.5256553
150 2 0.0 78.12364808 4.60253291 9.5256553
151 1 0.0 81.31235492 0.92051045 11.08108792
152 1 0.0 79.7180036 3.68202798 11.08108792
153 2 0.0 82.90671941 1.84101537 12.63652054
154 2 0.0 81.31236808 4.60253291 12.63652054
155 2 0.0 82.90671941 1.84101537 9.5256553
156 2 0.0 81.31236808 4.60253291 9.5256553
157 1 0.0 84.50107492 0.92051045 11.08108792
158 1 0.0 82.9067236 3.68202798 11.08108792
159 2 0.0 86.09543941 1.84101537 12.63652054
160 2 0.0 84.50108808 4.60253291 12.63652054
161 2 0.0 86.09543941 1.84101537 9.5256553
162 2 0.0 84.50108808 4.60253291 9.5256553
163 1 0.0 87.68979492 0.92051045 11.08108792
164 1 0.0 86.0954436 3.68202798 11.08108792
165 2 0.0 89.28415941 1.84101537 12.63652054
166 2 0.0 87.68980808 4.60253291 12.63652054
167 2 0.0 89.28415941 1.84101537 9.5256553
168 2 0.0 87.68980808 4.60253291 9.5256553
169 1 0.0 90.87851492 0.92051045 11.08108792
170 1 0.0 89.2841636 3.68202798 11.08108792
171 2 0.0 92.47287941 1.84101537 12.63652054
172 2 0.0 90.87852808 4.60253291 12.63652054
173 2 0.0 92.47287941 1.84101537 9.5256553
174 2 0.0 90.87852808 4.60253291 9.5256553
175 1 0.0 94.06723492 0.92051045 11.08108792
176 1 0.0 92.4728836 3.68202798 11.08108792
177 2 0.0 95.66159941 1.84101537 12.63652054
178 2 0.0 94.06724808 4.60253291 12.63652054
179 2 0.0 95.66159941 1.84101537 9.5256553
180 2 0.0 94.06724808 4.60253291 9.5256553
181 1 0.0 97.25595492 0.92051045 11.08108792
182 1 0.0 95.6616036 3.68202798 11.08108792
183 2 0.0 98.85031941 1.84101537 12.63652054
184 2 0.0 97.25596808 4.60253291 12.63652054
185 2 0.0 98.85031941 1.84101537 9.5256553
186 2 0.0 97.25596808 4.60253291 9.5256553
187 1 0.0 1.59435492 6.44354552 11.08108792
188 1 0.0 3.6e-06 9.20506305 11.08108792
189 2 0.0 3.18871941 7.36405044 12.63652054
190 2 0.0 1.59436808 10.12556798 12.63652054
191 2 0.0 3.18871941 7.36405044 9.5256553
192 2 0.0 1.59436808 10.12556798 9.5256553
193 1 0.0 4.78307492 6.44354552 11.08108792
194 1 0.0 3.1887236 9.20506305 11.08108792
195 2 0.0 6.37743941 7.36405044 12.63652054
196 2 0.0 4.78308808 10.12556798 12.63652054
197 2 0.0 6.37743941 7.36405044 9.5256553
198 2 0.0 4.78308808 10.12556798 9.5256553
199 1 0.0 7.97179492 6.44354552 11.08108792
200 1 0.0 6.3774436 9.20506305 11.08108792
201 2 0.0 9.56615941 7.36405044 12.63652054
202 2 0.0 7.97180808 10.12556798 12.63652054
203 2 0.0 9.56615941 7.36405044 9.5256553
204 2 0.0 7.97180808 10.12556798 9.5256553
205 1 0.0 11.16051492 6.44354552 11.08108792
206 1 0.0 9.5661636 9.20506305 11.08108792
207 2 0.0 12.75487941 7.36405044 12.63652054
208 2 0.0 11.16052808 10.12556798 12.63652054
209 2 0.0 12.75487941 7.36405044 9.5256553
210 2 0.0 11.16052808 10.12556798 9.5256553
211 1 0.0 14.34923492 6.44354552 11.08108792
212 1 0.0 12.7548836 9.20506305 11.08108792
213 2 0.0 15.94359941 7.36405044 12.63652054
214 2 0.0 14.34924808 10.12556798 12.63652054
215 2 0.0 15.94359941 7.36405044 9.5256553
216 2 0.0 14.34924808 10.12556798 9.5256553
217 1 0.0 17.53795492 6.44354552 11.08108792
218 1 0.0 15.9436036 9.20506305 11.08108792
219 2 0.0 19.13231941 7.36405044 12.63652054
220 2 0.0 17.53796808 10.12556798 12.63652054
221 2 0.0 19.13231941 7.36405044 9.5256553
222 2 0.0 17.53796808 10.12556798 9.5256553
223 1 0.0 20.72667492 6.44354552 11.08108792
224 1 0.0 19.1323236 9.20506305 11.08108792
225 2 0.0 22.32103941 7.36405044 12.63652054
226 2 0.0 20.72668808 10.12556798 12.63652054
227 2 0.0 22.32103941 7.36405044 9.5256553
228 2 0.0 20.72668808 10.12556798 9.5256553
229 1 0.0 23.91539492 6.44354552 11.08108792
230 1 0.0 22.3210436 9.20506305 11.08108792
231 2 0.0 25.50975941 7.36405044 12.63652054
232 2 0.0 23.91540808 10.12556798 12.63652054
233 2 0.0 25.50975941 7.36405044 9.5256553
234 2 0.0 23.91540808 10.12556798 9.5256553
235 1 0.0 27.10411492 6.44354552 11.08108792
236 1 0.0 25.5097636 9.20506305 11.08108792
237 2 0.0 28.69847941 7.36405044 12.63652054
238 2 0.0 27.10412808 10.12556798 12.63652054
239 2 0.0 28.69847941 7.36405044 9.5256553
240 2 0.0 27.10412808 10.12556798 9.5256553
241 1 0.0 30.29283492 6.44354552 11.08108792
242 1 0.0 28.6984836 9.20506305 11.08108792
243 2 0.0 31.88719941 7.36405044 12.63652054
244 2 0.0 30.29284808 10.12556798 12.63652054
245 2 0.0 31.88719941 7.36405044 9.5256553
246 2 0.0 30.29284808 10.12556798 9.5256553
247 1 0.0 33.48155492 6.44354552 11.08108792
248 1 0.0 31.8872036 9.20506305 11.08108792
249 2 0.0 35.07591941 7.36405044 12.63652054
250 2 0.0 33.48156808 10.12556798 12.63652054
251 2 0.0 35.07591941 7.36405044 9.5256553
252 2 0.0 33.48156808 10.12556798 9.5256553
253 1 0.0 36.67027492 6.44354552 11.08108792
254 1 0.0 35.0759236 9.20506305 11.08108792
255 2 0.0 38.26463941 7.36405044 12.63652054
256 2 0.0 36.67028808 10.12556798 12.63652054
257 2 0.0 38.26463941 7.36405044 9.5256553
258 2 0.0 36.67028808 10.12556798 9.5256553
259 1 0.0 39.85899492 6.44354552 11.08108792
260 1 0.0 38.2646436 9.20506305 11.08108792
261 2 0.0 41.45335941 7.36405044 12.63652054
262 2 0.0 39.85900808 10.12556798 12.63652054
263 2 0.0 41.45335941 7.36405044 9.5256553
264 2 0.0 39.85900808 10.12556798 9.5256553
265 1 0.0 43.04771492 6.44354552 11.08108792
266 1 0.0 41.4533636 9.20506305 11.08108792
267 2 0.0 44.64207941 7.36405044 12.63652054
268 2 0.0 43.04772808 10.12556798 12.63652054
269 2 0.0 44.64207941 7.36405044 9.5256553
270 2 0.0 43.04772808 10.12556798 9.5256553
271 1 0.0 46.23643492 6.44354552 11.08108792
272 1 0.0 44.6420836 9.20506305 11.08108792
273 2 0.0 47.83079941 7.36405044 12.63652054
274 2 0.0 46.23644808 10.12556798 12.63652054
275 2 0.0 47.83079941 7.36405044 9.5256553
276 2 0.0 46.23644808 10.12556798 9.5256553
277 1 0.0 49.42515492 6.44354552 11.08108792
278 1 0.0 47.8308036 9.20506305 11.08108792
279 2 0.0 51.01951941 7.36405044 12.63652054
280 2 0.0 49.42516808 10.12556798 12.63652054
281 2 0.0 51.01951941 7.36405044 9.5256553
282 2 0.0 49.42516808 10.12556798 9.5256553
283 1 0.0 52.61387492 6.44354552 11.08108792
284 1 0.0 51.0195236 9.20506305 11.08108792
285 2 0.0 54.20823941 7.36405044 12.63652054
286 2 0.0 52.61388808 10.12556798 12.63652054
287 2 0.0 54.20823941 7.36405044 9.5256553
288 2 0.0 52.61388808 10.12556798 9.5256553
289 1 0.0 55.80259492 6.44354552 11.08108792
290 1 0.0 54.2082436 9.20506305 11.08108792
291 2 0.0 57.39695941 7.36405044 12.63652054
292 2 0.0 55.80260808 10.12556798 12.63652054
293 2 0.0 57.39695941 7.36405044 9.5256553
294 2 0.0 55.80260808 10.12556798 9.5256553
295 1 0.0 58.99131492 6.44354552 11.08108792
296 1 0.0 57.3969636 9.20506305 11.08108792
297 2 0.0 60.58567941 7.36405044 12.63652054
298 2 0.0 58.99132808 10.12556798 12.63652054
299 2 0.0 60.58567941 7.36405044 9.5256553
300 2 0.0 58.99132808 10.12556798 9.5256553
301 1 0.0 62.18003492 6.44354552 11.08108792
302 1 0.0 60.5856836 9.20506305 11.08108792
303 2 0.0 63.77439941 7.36405044 12.63652054
304 2 0.0 62.18004808 10.12556798 12.63652054
305 2 0.0 63.77439941 7.36405044 9.5256553
306 2 0.0 62.18004808 10.12556798 9.5256553
307 1 0.0 65.36875492 6.44354552 11.08108792
308 1 0.0 63.7744036 9.20506305 11.08108792
309 2 0.0 66.96311941 7.36405044 12.63652054
310 2 0.0 65.36876808 10.12556798 12.63652054
311 2 0.0 66.96311941 7.36405044 9.5256553
312 2 0.0 65.36876808 10.12556798 9.5256553
313 1 0.0 68.55747492 6.44354552 11.08108792
314 1 0.0 66.9631236 9.20506305 11.08108792
315 2 0.0 70.15183941 7.36405044 12.63652054
316 2 0.0 68.55748808 10.12556798 12.63652054
317 2 0.0 70.15183941 7.36405044 9.5256553
318 2 0.0 68.55748808 10.12556798 9.5256553
319 1 0.0 71.74619492 6.44354552 11.08108792
320 1 0.0 70.1518436 9.20506305 11.08108792
321 2 0.0 73.34055941 7.36405044 12.63652054
322 2 0.0 71.74620808 10.12556798 12.63652054
323 2 0.0 73.34055941 7.36405044 9.5256553
324 2 0.0 71.74620808 10.12556798 9.5256553
325 1 0.0 74.93491492 6.44354552 11.08108792
326 1 0.0 73.3405636 9.20506305 11.08108792
327 2 0.0 76.52927941 7.36405044 12.63652054
328 2 0.0 74.93492808 10.12556798 12.63652054
329 2 0.0 76.52927941 7.36405044 9.5256553
330 2 0.0 74.93492808 10.12556798 9.5256553
331 1 0.0 78.12363492 6.44354552 11.08108792
332 1 0.0 76.5292836 9.20506305 11.08108792
333 2 0.0 79.71799941 7.36405044 12.63652054
334 2 0.0 78.12364808 10.12556798 12.63652054
335 2 0.0 79.71799941 7.36405044 9.5256553
336 2 0.0 78.12364808 10.12556798 9.5256553
337 1 0.0 81.31235492 6.44354552 11.08108792
338 1 0.0 79.7180036 9.20506305 11.08108792
339 2 0.0 82.90671941 7.36405044 12.63652054
340 2 0.0 81.31236808 10.12556798 12.63652054
341 2 0.0 82.90671941 7.36405044 9.5256553
342 2 0.0 81.31236808 10.12556798 9.5256553
343 1 0.0 84.50107492 6.44354552 11.08108792
344 1 0.0 82.9067236 9.20506305 11.08108792
345 2 0.0 86.09543941 7.36405044 12.63652054
346 2 0.0 84.50108808 10.12556798 12.63652054
347 2 0.0 86.09543941 7.36405044 9.5256553
348 2 0.0 84.50108808 10.12556798 9.5256553
349 1 0.0 87.68979492 6.44354552 11.08108792
350 1 0.0 86.0954436 9.20506305 11.08108792
351 2 0.0 89.28415941 7.36405044 12.63652054
352 2 0.0 87.68980808 10.12556798 12.63652054
353 2 0.0 89.28415941 7.36405044 9.5256553
354 2 0.0 87.68980808 10.12556798 9.5256553
355 1 0.0 90.87851492 6.44354552 11.08108792
356 1 0.0 89.2841636 9.20506305 11.08108792
357 2 0.0 92.47287941 7.36405044 12.63652054
358 2 0.0 90.87852808 10.12556798 12.63652054
359 2 0.0 92.47287941 7.36405044 9.5256553
360 2 0.0 90.87852808 10.12556798 9.5256553
361 1 0.0 94.06723492 6.44354552 11.08108792
362 1 0.0 92.4728836 9.20506305 11.08108792
363 2 0.0 95.66159941 7.36405044 12.63652054
364 2 0.0 94.06724808 10.12556798 12.63652054
365 2 0.0 95.66159941 7.36405044 9.5256553
366 2 0.0 94.06724808 10.12556798 9.5256553
367 1 0.0 97.25595492 6.44354552 11.08108792
368 1 0.0 95.6616036 9.20506305 11.08108792
369 2 0.0 98.85031941 7.36405044 12.63652054
370 2 0.0 97.25596808 10.12556798 12.63652054
371 2 0.0 98.85031941 7.36405044 9.5256553
372 2 0.0 97.25596808 10.12556798 9.5256553
373 1 0.0 1.59435492 11.96658059 11.08108792
374 1 0.0 3.6e-06 14.72809812 11.08108792
375 2 0.0 3.18871941 12.88708551 12.63652054
376 2 0.0 1.59436808 15.64860305 12.63652054
377 2 0.0 3.18871941 12.88708551 9.5256553
378 2 0.0 1.59436808 15.64860305 9.5256553
379 1 0.0 4.78307492 11.96658059 11.08108792
380 1 0.0 3.1887236 14.72809812 11.08108792
381 2 0.0 6.37743941 12.88708551 12.63652054
382 2 0.0 4.78308808 15.64860305 12.63652054
383 2 0.0 6.37743941 12.88708551 9.5256553
384 2 0.0 4.78308808 15.64860305 9.5256553
385 1 0.0 7.97179492 11.96658059 11.08108792
386 1 0.0 6.3774436 14.72809812 11.08108792
387 2 0.0 9.56615941 12.88708551 12.63652054
388 2 0.0 7.97180808 15.64860305 12.63652054
389 2 0.0 9.56615941 12.88708551 9.5256553
390 2 0.0 7.97180808 15.64860305 9.5256553
391 1 0.0 11.16051492 11.96658059 11.08108792
392 1 0.0 9.5661636 14.72809812 11.08108792
393 2 0.0 12.75487941 12.88708551 12.63652054
394 2 0.0 11.16052808 15.64860305 12.63652054
395 2 0.0 12.75487941 12.88708551 9.5256553
396 2 0.0 11.16052808 15.64860305 9.5256553
397 1 0.0 14.34923492 11.96658059 11.08108792
398 1 0.0 12.7548836 14.72809812 11.08108792
399 2 0.0 15.94359941 12.88708551 12.63652054
400 2 0.0 14.34924808 15.64860305 12.63652054
401 2 0.0 15.94359941 12.88708551 9.5256553
402 2 0.0 14.34924808 15.64860305 9.5256553
403 1 0.0 17.53795492 11.96658059 11.08108792
404 1 0.0 15.9436036 14.72809812 11.08108792
405 2 0.0 19.13231941 12.88708551 12.63652054
406 2 0.0 17.53796808 15.64860305 12.63652054
407 2 0.0 19.13231941 12.88708551 9.5256553
408 2 0.0 17.53796808 15.64860305 9.5256553
409 1 0.0 20.72667492 11.96658059 11.08108792
410 1 0.0 19.1323236 14.72809812 11.08108792
411 2 0.0 22.32103941 12.88708551 12.63652054
412 2 0.0 20.72668808 15.64860305 12.63652054
413 2 0.0 22.32103941 12.88708551 9.5256553
414 2 0.0 20.72668808 15.64860305 9.5256553
415 1 0.0 23.91539492 11.96658059 11.08108792
416 1 0.0 22.3210436 14.72809812 11.08108792
417 2 0.0 25.50975941 12.88708551 12.63652054
418 2 0.0 23.91540808 15.64860305 12.63652054
419 2 0.0 25.50975941 12.88708551 9.5256553
420 2 0.0 23.91540808 15.64860305 9.5256553
421 1 0.0 27.10411492 11.96658059 11.08108792
422 1 0.0 25.5097636 14.72809812 11.08108792
423 2 0.0 28.69847941 12.88708551 12.63652054
424 2 0.0 27.10412808 15.64860305 12.63652054
425 2 0.0 28.69847941 12.88708551 9.5256553
426 2 0.0 27.10412808 15.64860305 9.5256553
427 1 0.0 30.29283492 11.96658059 11.08108792
428 1 0.0 28.6984836 14.72809812 11.08108792
429 2 0.0 31.88719941 12.88708551 12.63652054
430 2 0.0 30.29284808 15.64860305 12.63652054
431 2 0.0 31.88719941 12.88708551 9.5256553
432 2 0.0 30.29284808 15.64860305 9.5256553
433 1 0.0 33.48155492 11.96658059 11.08108792
434 1 0.0 31.8872036 14.72809812 11.08108792
435 2 0.0 35.07591941 12.88708551 12.63652054
436 2 0.0 33.48156808 15.64860305 12.63652054
437 2 0.0 35.07591941 12.88708551 9.5256553
438 2 0.0 33.48156808 15.64860305 9.5256553
439 1 0.0 36.67027492 11.96658059 11.08108792
440 1 0.0 35.0759236 14.72809812 11.08108792
441 2 0.0 38.26463941 12.88708551 12.63652054
442 2 0.0 36.67028808 15.64860305 12.63652054
443 2 0.0 38.26463941 12.88708551 9.5256553
444 2 0.0 36.67028808 15.64860305 9.5256553
445 1 0.0 39.85899492 11.96658059 11.08108792
446 1 0.0 38.2646436 14.72809812 11.08108792
447 2 0.0 41.45335941 12.88708551 12.63652054
448 2 0.0 39.85900808 15.64860305 12.63652054
449 2 0.0 41.45335941 12.88708551 9.5256553
450 2 0.0 39.85900808 15.64860305 9.5256553
451 1 0.0 43.04771492 11.96658059 11.08108792
452 1 0.0 41.4533636 14.72809812 11.08108792
453 2 0.0 44.64207941 12.88708551 12.63652054
454 2 0.0 43.04772808 15.64860305 12.63652054
455 2 0.0 44.64207941 12.88708551 9.5256553
456 2 0.0 43.04772808 15.64860305 9.5256553
457 1 0.0 46.23643492 11.96658059 11.08108792
458 1 0.0 44.6420836 14.72809812 11.08108792
459 2 0.0 47.83079941 12.88708551 12.63652054
460 2 0.0 46.23644808 15.64860305 12.63652054
461 2 0.0 47.83079941 12.88708551 9.5256553
462 2 0.0 46.23644808 15.64860305 9.5256553
463 1 0.0 49.42515492 11.96658059 11.08108792
464 1 0.0 47.8308036 14.72809812 11.08108792
465 2 0.0 51.01951941 12.88708551 12.63652054
466 2 0.0 49.42516808 15.64860305 12.63652054
467 2 0.0 51.01951941 12.88708551 9.5256553
468 2 0.0 49.42516808 15.64860305 9.5256553
469 1 0.0 52.61387492 11.96658059 11.08108792
470 1 0.0 51.0195236 14.72809812 11.08108792
471 2 0.0 54.20823941 12.88708551 12.63652054
472 2 0.0 52.61388808 15.64860305 12.63652054
473 2 0.0 54.20823941 12.88708551 9.5256553
474 2 0.0 52.61388808 15.64860305 9.5256553
475 1 0.0 55.80259492 11.96658059 11.08108792
476 1 0.0 54.2082436 14.72809812 11.08108792
477 2 0.0 57.39695941 12.88708551 12.63652054
478 2 0.0 55.80260808 15.64860305 12.63652054
479 2 0.0 57.39695941 12.88708551 9.5256553
480 2 0.0 55.80260808 15.64860305 9.5256553
481 1 0.0 58.99131492 11.96658059 11.08108792
482 1 0.0 57.3969636 14.72809812 11.08108792
483 2 0.0 60.58567941 12.88708551 12.63652054
484 2 0.0 58.99132808 15.64860305 12.63652054
485 2 0.0 60.58567941 12.88708551 9.5256553
486 2 0.0 58.99132808 15.64860305 9.5256553
487 1 0.0 62.18003492 11.96658059 11.08108792
488 1 0.0 60.5856836 14.72809812 11.08108792
489 2 0.0 63.77439941 12.88708551 12.63652054
490 2 0.0 62.18004808 15.64860305 12.63652054
491 2 0.0 63.77439941 12.88708551 9.5256553
492 2 0.0 62.18004808 15.64860305 9.5256553
493 1 0.0 65.36875492 11.96658059 11.08108792
494 1 0.0 63.7744036 14.72809812 11.08108792
495 2 0.0 66.96311941 12.88708551 12.63652054
496 2 0.0 65.36876808 15.64860305 12.63652054
497 2 0.0 66.96311941 12.88708551 9.5256553
498 2 0.0 65.36876808 15.64860305 9.5256553
499 1 0.0 68.55747492 11.96658059 11.08108792
500 1 0.0 66.9631236 14.72809812 11.08108792
501 2 0.0 70.15183941 12.88708551 12.63652054
502 2 0.0 68.55748808 15.64860305 12.63652054
503 2 0.0 70.15183941 12.88708551 9.5256553
504 2 0.0 68.55748808 15.64860305 9.5256553
505 1 0.0 71.74619492 11.96658059 11.08108792
506 1 0.0 70.1518436 14.72809812 11.08108792
507 2 0.0 73.34055941 12.88708551 12.63652054
508 2 0.0 71.74620808 15.64860305 12.63652054
509 2 0.0 73.34055941 12.88708551 9.5256553
510 2 0.0 71.74620808 15.64860305 9.5256553
511 1 0.0 74.93491492 11.96658059 11.08108792
512 1 0.0 73.3405636 14.72809812 11.08108792
513 2 0.0 76.52927941 12.88708551 12.63652054
514 2 0.0 74.93492808 15.64860305 12.63652054
515 2 0.0 76.52927941 12.88708551 9.5256553
516 2 0.0 74.93492808 15.64860305 9.5256553
517 1 0.0 78.12363492 11.96658059 11.08108792
518 1 0.0 76.5292836 14.72809812 11.08108792
519 2 0.0 79.71799941 12.88708551 12.63652054
520 2 0.0 78.12364808 15.64860305 12.63652054
521 2 0.0 79.71799941 12.88708551 9.5256553
522 2 0.0 78.12364808 15.64860305 9.5256553
523 1 0.0 81.31235492 11.96658059 11.08108792
524 1 0.0 79.7180036 14.72809812 11.08108792
525 2 0.0 82.90671941 12.88708551 12.63652054
526 2 0.0 81.31236808 15.64860305 12.63652054
527 2 0.0 82.90671941 12.88708551 9.5256553
528 2 0.0 81.31236808 15.64860305 9.5256553
529 1 0.0 84.50107492 11.96658059 11.08108792
530 1 0.0 82.9067236 14.72809812 11.08108792
531 2 0.0 86.09543941 12.88708551 12.63652054
532 2 0.0 84.50108808 15.64860305 12.63652054
533 2 0.0 86.09543941 12.88708551 9.5256553
534 2 0.0 84.50108808 15.64860305 9.5256553
535 1 0.0 87.68979492 11.96658059 11.08108792
536 1 0.0 86.0954436 14.72809812 11.08108792
537 2 0.0 89.28415941 12.88708551 12.63652054
538 2 0.0 87.68980808 15.64860305 12.63652054
539 2 0.0 89.28415941 12.88708551 9.5256553
540 2 0.0 87.68980808 15.64860305 9.5256553
541 1 0.0 90.87851492 11.96658059 11.08108792
542 1 0.0 89.2841636 14.72809812 11.08108792
543 2 0.0 92.47287941 12.88708551 12.63652054
544 2 0.0 90.87852808 15.64860305 12.63652054
545 2 0.0 92.47287941 12.88708551 9.5256553
546 2 0.0 90.87852808 15.64860305 9.5256553
547 1 0.0 94.06723492 11.96658059 11.08108792
548 1 0.0 92.4728836 14.72809812 11.08108792
549 2 0.0 95.66159941 12.88708551 12.63652054
550 2 0.0 94.06724808 15.64860305 12.63652054
551 2 0.0 95.66159941 12.88708551 9.5256553
552 2 0.0 94.06724808 15.64860305 9.5256553
553 1 0.0 97.25595492 11.96658059 11.08108792
554 1 0.0 95.6616036 14.72809812 11.08108792
555 2 0.0 98.85031941 12.88708551 12.63652054
556 2 0.0 97.25596808 15.64860305 12.63652054
557 2 0.0 98.85031941 12.88708551 9.5256553
558 2 0.0 97.25596808 15.64860305 9.5256553
559 1 0.0 1.59435492 17.48961566 11.08108792
560 1 0.0 3.6e-06 20.25113319 11.08108792
561 2 0.0 3.18871941 18.41012058 12.63652054
562 2 0.0 1.59436808 21.17163812 12.63652054
563 2 0.0 3.18871941 18.41012058 9.5256553
564 2 0.0 1.59436808 21.17163812 9.5256553
565 1 0.0 4.78307492 17.48961566 11.08108792
566 1 0.0 3.1887236 20.25113319 11.08108792
567 2 0.0 6.37743941 18.41012058 12.63652054
568 2 0.0 4.78308808 21.17163812 12.63652054
569 2 0.0 6.37743941 18.41012058 9.5256553
570 2 0.0 4.78308808 21.17163812 9.5256553
571 1 0.0 7.97179492 17.48961566 11.08108792
572 1 0.0 6.3774436 20.25113319 11.08108792
573 2 0.0 9.56615941 18.41012058 12.63652054
574 2 0.0 7.97180808 21.17163812 12.63652054
575 2 0.0 9.56615941 18.41012058 9.5256553
576 2 0.0 7.97180808 21.17163812 9.5256553
577 1 0.0 11.16051492 17.48961566 11.08108792
578 1 0.0 9.5661636 20.25113319 11.08108792
579 2 0.0 12.75487941 18.41012058 12.63652054
580 2 0.0 11.16052808 21.17163812 12.63652054
581 2 0.0 12.75487941 18.41012058 9.5256553
582 2 0.0 11.16052808 21.17163812 9.5256553
583 1 0.0 14.34923492 17.48961566 11.08108792
584 1 0.0 12.7548836 20.25113319 11.08108792
585 2 0.0 15.94359941 18.41012058 12.63652054
586 2 0.0 14.34924808 21.17163812 12.63652054
587 2 0.0 15.94359941 18.41012058 9.5256553
588 2 0.0 14.34924808 21.17163812 9.5256553
589 1 0.0 17.53795492 17.48961566 11.08108792
590 1 0.0 15.9436036 20.25113319 11.08108792
591 2 0.0 19.13231941 18.41012058 12.63652054
592 2 0.0 17.53796808 21.17163812 12.63652054
593 2 0.0 19.13231941 18.41012058 9.5256553
594 2 0.0 17.53796808 21.17163812 9.5256553
595 1 0.0 20.72667492 17.48961566 11.08108792
596 1 0.0 19.1323236 20.25113319 11.08108792
597 2 0.0 22.32103941 18.41012058 12.63652054
598 2 0.0 20.72668808 21.17163812 12.63652054
599 2 0.0 22.32103941 18.41012058 9.5256553
600 2 0.0 20.72668808 21.17163812 9.5256553
601 1 0.0 23.91539492 17.48961566 11.08108792
602 1 0.0 22.3210436 20.25113319 11.08108792
603 2 0.0 25.50975941 18.41012058 12.63652054
604 2 0.0 23.91540808 21.17163812 12.63652054
605 2 0.0 25.50975941 18.41012058 9.5256553
606 2 0.0 23.91540808 21.17163812 9.5256553
607 1 0.0 27.10411492 17.48961566 11.08108792
608 1 0.0 25.5097636 20.25113319 11.08108792
609 2 0.0 28.69847941 18.41012058 12.63652054
610 2 0.0 27.10412808 21.17163812 12.63652054
611 2 0.0 28.69847941 18.41012058 9.5256553
612 2 0.0 27.10412808 21.17163812 9.5256553
613 1 0.0 30.29283492 17.48961566 11.08108792
614 1 0.0 28.6984836 20.25113319 11.08108792
615 2 0.0 31.88719941 18.41012058 12.63652054
616 2 0.0 30.29284808 21.17163812 12.63652054
617 2 0.0 31.88719941 18.41012058 9.5256553
618 2 0.0 30.29284808 21.17163812 9.5256553
619 1 0.0 33.48155492 17.48961566 11.08108792
620 1 0.0 31.8872036 20.25113319 11.08108792
621 2 0.0 35.07591941 18.41012058 12.63652054
622 2 0.0 33.48156808 21.17163812 12.63652054
623 2 0.0 35.07591941 18.41012058 9.5256553
624 2 0.0 33.48156808 21.17163812 9.5256553
625 1 0.0 36.67027492 17.48961566 11.08108792
626 1 0.0 35.0759236 20.25113319 11.08108792
627 2 0.0 38.26463941 18.41012058 12.63652054
628 2 0.0 36.67028808 21.17163812 12.63652054
629 2 0.0 38.26463941 18.41012058 9.5256553
630 2 0.0 36.67028808 21.17163812 9.5256553
631 1 0.0 39.85899492 17.48961566 11.08108792
632 1 0.0 38.2646436 20.25113319 11.08108792
633 2 0.0 41.45335941 18.41012058 12.63652054
634 2 0.0 39.85900808 21.17163812 12.63652054
635 2 0.0 41.45335941 18.41012058 9.5256553
636 2 0.0 39.85900808 21.17163812 9.5256553
637 1 0.0 43.04771492 17.48961566 11.08108792
638 1 0.0 41.4533636 20.25113319 11.08108792
639 2 0.0 44.64207941 18.41012058 12.63652054
640 2 0.0 43.04772808 21.17163812 12.63652054
641 2 0.0 44.64207941 18.41012058 9.5256553
642 2 0.0 43.04772808 21.17163812 9.5256553
643 1 0.0 46.23643492 17.48961566 11.08108792
644 1 0.0 44.6420836 20.25113319 11.08108792
645 2 0.0 47.83079941 18.41012058 12.63652054
646 2 0.0 46.23644808 21.17163812 12.63652054
647 2 0.0 47.83079941 18.41012058 9.5256553
648 2 0.0 46.23644808 21.17163812 9.5256553
649 1 0.0 49.42515492 17.48961566 11.08108792
650 1 0.0 47.8308036 20.25113319 11.08108792
651 2 0.0 51.01951941 18.41012058 12.63652054
652 2 0.0 49.42516808 21.17163812 12.63652054
653 2 0.0 51.01951941 18.41012058 9.5256553
654 2 0.0 49.42516808 21.17163812 9.5256553
655 1 0.0 52.61387492 17.48961566 11.08108792